ITEM: TIMESTEP
0
ITEM: NUMBER OF ATOMS
1728
ITEM: BOX BOUNDS pp pp pp
0.0000000000000000e+00 3.2579999999999998e+01
0.0000000000000000e+00 3.2579999999999998e+01
0.0000000000000000e+00 3.2579999999999998e+01
ITEM: ATOMS id element type x y z vx vy vz
1 Si 1 0 0 0 0 0 0
2 Si 1 0 2.715 2.715 0 0 0
3 Si 1 2.715 0 2.715 0 0 0
4 Si 1 2.715 2.715 0 0 0 0
5 Si 1 1.3575 1.3575 1.3575 0 0 0
9 Si 1 5.43 0 0 0 0 0
10 Si 1 5.43 2.715 2.715 0 0 0
11 Si 1 8.145 0 2.715 0 0 0
12 Si 1 8.145 2.715 0 0 0 0
13 Si 1 6.7875 1.3575 1.3575 0 0 0
17 Si 1 10.86 0 0 0 0 0
18 Si 1 10.86 2.715 2.715 0 0 0
19 Si 1 13.575 0 2.715 0 0 0
20 Si 1 13.575 2.715 0 0 0 0
21 Si 1 12.2175 1.3575 1.3575 0 0 0
25 Si 1 16.29 0 0 0 0 0
26 Si 1 16.29 2.715 2.715 0 0 0
29 Si 1 17.6475 1.3575 1.3575 0 0 0
27 Si 1 19.005 0 2.715 0 0 0
28 Si 1 19.005 2.715 0 0 0 0
33 Si 1 21.72 0 0 0 0 0
34 Si 1 21.72 2.715 2.715 0 0 0
37 Si 1 23.0775 1.3575 1.3575 0 0 0
35 Si 1 24.435 0 2.715 0 0 0
36 Si 1 24.435 2.715 0 0 0 0
41 Si 1 27.15 0 0 0 0 0
42 Si 1 27.15 2.715 2.715 0 0 0
45 Si 1 28.5075 1.3575 1.3575 0 0 0
43 Si 1 29.865 0 2.715 0 0 0
44 Si 1 29.865 2.715 0 0 0 0
49 Si 1 0 5.43 0 0 0 0
51 Si 1 2.715 5.43 2.715 0 0 0
8 Si 1 4.0725 4.0725 1.3575 0 0 0
57 Si 1 5.43 5.43 0 0 0 0
59 Si 1 8.145 5.43 2.715 0 0 0
16 Si 1 9.5025 4.0725 1.3575 0 0 0
65 Si 1 10.86 5.43 0 0 0 0
67 Si 1 13.575 5.43 2.715 0 0 0
24 Si 1 14.9325 4.0725 1.3575 0 0 0
73 Si 1 16.29 5.43 0 0 0 0
32 Si 1 20.3625 4.0725 1.3575 0 0 0
75 Si 1 19.005 5.43 2.715 0 0 0
81 Si 1 21.72 5.43 0 0 0 0
40 Si 1 25.7925 4.0725 1.3575 0 0 0
83 Si 1 24.435 5.43 2.715 0 0 0
89 Si 1 27.15 5.43 0 0 0 0
48 Si 1 31.2225 4.0725 1.3575 0 0 0
91 Si 1 29.865 5.43 2.715 0 0 0
50 Si 1 0 8.145 2.715 0 0 0
52 Si 1 2.715 8.145 0 0 0 0
53 Si 1 1.3575 6.7875 1.3575 0 0 0
58 Si 1 5.43 8.145 2.715 0 0 0
60 Si 1 8.145 8.145 0 0 0 0
61 Si 1 6.7875 6.7875 1.3575 0 0 0
66 Si 1 10.86 8.145 2.715 0 0 0
68 Si 1 13.575 8.145 0 0 0 0
69 Si 1 12.2175 6.7875 1.3575 0 0 0
74 Si 1 16.29 8.145 2.715 0 0 0
77 Si 1 17.6475 6.7875 1.3575 0 0 0
76 Si 1 19.005 8.145 0 0 0 0
82 Si 1 21.72 8.145 2.715 0 0 0
85 Si 1 23.0775 6.7875 1.3575 0 0 0
84 Si 1 24.435 8.145 0 0 0 0
90 Si 1 27.15 8.145 2.715 0 0 0
93 Si 1 28.5075 6.7875 1.3575 0 0 0
92 Si 1 29.865 8.145 0 0 0 0
97 Si 1 0 10.86 0 0 0 0
99 Si 1 2.715 10.86 2.715 0 0 0
56 Si 1 4.0725 9.5025 1.3575 0 0 0
105 Si 1 5.43 10.86 0 0 0 0
107 Si 1 8.145 10.86 2.715 0 0 0
64 Si 1 9.5025 9.5025 1.3575 0 0 0
113 Si 1 10.86 10.86 0 0 0 0
115 Si 1 13.575 10.86 2.715 0 0 0
72 Si 1 14.9325 9.5025 1.3575 0 0 0
121 Si 1 16.29 10.86 0 0 0 0
80 Si 1 20.3625 9.5025 1.3575 0 0 0
123 Si 1 19.005 10.86 2.715 0 0 0
129 Si 1 21.72 10.86 0 0 0 0
88 Si 1 25.7925 9.5025 1.3575 0 0 0
131 Si 1 24.435 10.86 2.715 0 0 0
137 Si 1 27.15 10.86 0 0 0 0
96 Si 1 31.2225 9.5025 1.3575 0 0 0
139 Si 1 29.865 10.86 2.715 0 0 0
98 Si 1 0 13.575 2.715 0 0 0
100 Si 1 2.715 13.575 0 0 0 0
101 Si 1 1.3575 12.2175 1.3575 0 0 0
106 Si 1 5.43 13.575 2.715 0 0 0
108 Si 1 8.145 13.575 0 0 0 0
109 Si 1 6.7875 12.2175 1.3575 0 0 0
114 Si 1 10.86 13.575 2.715 0 0 0
116 Si 1 13.575 13.575 0 0 0 0
117 Si 1 12.2175 12.2175 1.3575 0 0 0
122 Si 1 16.29 13.575 2.715 0 0 0
125 Si 1 17.6475 12.2175 1.3575 0 0 0
124 Si 1 19.005 13.575 0 0 0 0
130 Si 1 21.72 13.575 2.715 0 0 0
133 Si 1 23.0775 12.2175 1.3575 0 0 0
132 Si 1 24.435 13.575 0 0 0 0
138 Si 1 27.15 13.575 2.715 0 0 0
141 Si 1 28.5075 12.2175 1.3575 0 0 0
140 Si 1 29.865 13.575 0 0 0 0
145 Si 1 0 16.29 0 0 0 0
147 Si 1 2.715 16.29 2.715 0 0 0
149 Si 1 1.3575 17.6475 1.3575 0 0 0
104 Si 1 4.0725 14.9325 1.3575 0 0 0
153 Si 1 5.43 16.29 0 0 0 0
155 Si 1 8.145 16.29 2.715 0 0 0
157 Si 1 6.7875 17.6475 1.3575 0 0 0
112 Si 1 9.5025 14.9325 1.3575 0 0 0
161 Si 1 10.86 16.29 0 0 0 0
163 Si 1 13.575 16.29 2.715 0 0 0
165 Si 1 12.2175 17.6475 1.3575 0 0 0
120 Si 1 14.9325 14.9325 1.3575 0 0 0
169 Si 1 16.29 16.29 0 0 0 0
173 Si 1 17.6475 17.6475 1.3575 0 0 0
128 Si 1 20.3625 14.9325 1.3575 0 0 0
171 Si 1 19.005 16.29 2.715 0 0 0
177 Si 1 21.72 16.29 0 0 0 0
181 Si 1 23.0775 17.6475 1.3575 0 0 0
136 Si 1 25.7925 14.9325 1.3575 0 0 0
179 Si 1 24.435 16.29 2.715 0 0 0
185 Si 1 27.15 16.29 0 0 0 0
189 Si 1 28.5075 17.6475 1.3575 0 0 0
144 Si 1 31.2225 14.9325 1.3575 0 0 0
187 Si 1 29.865 16.29 2.715 0 0 0
146 Si 1 0 19.005 2.715 0 0 0
148 Si 1 2.715 19.005 0 0 0 0
152 Si 1 4.0725 20.3625 1.3575 0 0 0
154 Si 1 5.43 19.005 2.715 0 0 0
156 Si 1 8.145 19.005 0 0 0 0
160 Si 1 9.5025 20.3625 1.3575 0 0 0
162 Si 1 10.86 19.005 2.715 0 0 0
164 Si 1 13.575 19.005 0 0 0 0
168 Si 1 14.9325 20.3625 1.3575 0 0 0
170 Si 1 16.29 19.005 2.715 0 0 0
172 Si 1 19.005 19.005 0 0 0 0
176 Si 1 20.3625 20.3625 1.3575 0 0 0
178 Si 1 21.72 19.005 2.715 0 0 0
180 Si 1 24.435 19.005 0 0 0 0
184 Si 1 25.7925 20.3625 1.3575 0 0 0
186 Si 1 27.15 19.005 2.715 0 0 0
188 Si 1 29.865 19.005 0 0 0 0
192 Si 1 31.2225 20.3625 1.3575 0 0 0
193 Si 1 0 21.72 0 0 0 0
195 Si 1 2.715 21.72 2.715 0 0 0
197 Si 1 1.3575 23.0775 1.3575 0 0 0
201 Si 1 5.43 21.72 0 0 0 0
203 Si 1 8.145 21.72 2.715 0 0 0
205 Si 1 6.7875 23.0775 1.3575 0 0 0
209 Si 1 10.86 21.72 0 0 0 0
211 Si 1 13.575 21.72 2.715 0 0 0
213 Si 1 12.2175 23.0775 1.3575 0 0 0
217 Si 1 16.29 21.72 0 0 0 0
221 Si 1 17.6475 23.0775 1.3575 0 0 0
219 Si 1 19.005 21.72 2.715 0 0 0
225 Si 1 21.72 21.72 0 0 0 0
229 Si 1 23.0775 23.0775 1.3575 0 0 0
227 Si 1 24.435 21.72 2.715 0 0 0
233 Si 1 27.15 21.72 0 0 0 0
237 Si 1 28.5075 23.0775 1.3575 0 0 0
235 Si 1 29.865 21.72 2.715 0 0 0
194 Si 1 0 24.435 2.715 0 0 0
196 Si 1 2.715 24.435 0 0 0 0
200 Si 1 4.0725 25.7925 1.3575 0 0 0
202 Si 1 5.43 24.435 2.715 0 0 0
204 Si 1 8.145 24.435 0 0 0 0
208 Si 1 9.5025 25.7925 1.3575 0 0 0
210 Si 1 10.86 24.435 2.715 0 0 0
212 Si 1 13.575 24.435 0 0 0 0
216 Si 1 14.9325 25.7925 1.3575 0 0 0
218 Si 1 16.29 24.435 2.715 0 0 0
220 Si 1 19.005 24.435 0 0 0 0
224 Si 1 20.3625 25.7925 1.3575 0 0 0
226 Si 1 21.72 24.435 2.715 0 0 0
228 Si 1 24.435 24.435 0 0 0 0
232 Si 1 25.7925 25.7925 1.3575 0 0 0
234 Si 1 27.15 24.435 2.715 0 0 0
236 Si 1 29.865 24.435 0 0 0 0
240 Si 1 31.2225 25.7925 1.3575 0 0 0
241 Si 1 0 27.15 0 0 0 0
243 Si 1 2.715 27.15 2.715 0 0 0
245 Si 1 1.3575 28.5075 1.3575 0 0 0
249 Si 1 5.43 27.15 0 0 0 0
251 Si 1 8.145 27.15 2.715 0 0 0
253 Si 1 6.7875 28.5075 1.3575 0 0 0
257 Si 1 10.86 27.15 0 0 0 0
259 Si 1 13.575 27.15 2.715 0 0 0
261 Si 1 12.2175 28.5075 1.3575 0 0 0
265 Si 1 16.29 27.15 0 0 0 0
269 Si 1 17.6475 28.5075 1.3575 0 0 0
267 Si 1 19.005 27.15 2.715 0 0 0
273 Si 1 21.72 27.15 0 0 0 0
277 Si 1 23.0775 28.5075 1.3575 0 0 0
275 Si 1 24.435 27.15 2.715 0 0 0
281 Si 1 27.15 27.15 0 0 0 0
285 Si 1 28.5075 28.5075 1.3575 0 0 0
283 Si 1 29.865 27.15 2.715 0 0 0
242 Si 1 0 29.865 2.715 0 0 0
244 Si 1 2.715 29.865 0 0 0 0
248 Si 1 4.0725 31.2225 1.3575 0 0 0
250 Si 1 5.43 29.865 2.715 0 0 0
252 Si 1 8.145 29.865 0 0 0 0
256 Si 1 9.5025 31.2225 1.3575 0 0 0
258 Si 1 10.86 29.865 2.715 0 0 0
260 Si 1 13.575 29.865 0 0 0 0
264 Si 1 14.9325 31.2225 1.3575 0 0 0
266 Si 1 16.29 29.865 2.715 0 0 0
268 Si 1 19.005 29.865 0 0 0 0
272 Si 1 20.3625 31.2225 1.3575 0 0 0
274 Si 1 21.72 29.865 2.715 0 0 0
276 Si 1 24.435 29.865 0 0 0 0
280 Si 1 25.7925 31.2225 1.3575 0 0 0
282 Si 1 27.15 29.865 2.715 0 0 0
284 Si 1 29.865 29.865 0 0 0 0
288 Si 1 31.2225 31.2225 1.3575 0 0 0
289 Si 1 0 0 5.43 0 0 0
292 Si 1 2.715 2.715 5.43 0 0 0
7 Si 1 4.0725 1.3575 4.0725 0 0 0
297 Si 1 5.43 0 5.43 0 0 0
300 Si 1 8.145 2.715 5.43 0 0 0
15 Si 1 9.5025 1.3575 4.0725 0 0 0
305 Si 1 10.86 0 5.43 0 0 0
308 Si 1 13.575 2.715 5.43 0 0 0
23 Si 1 14.9325 1.3575 4.0725 0 0 0
313 Si 1 16.29 0 5.43 0 0 0
31 Si 1 20.3625 1.3575 4.0725 0 0 0
316 Si 1 19.005 2.715 5.43 0 0 0
321 Si 1 21.72 0 5.43 0 0 0
39 Si 1 25.7925 1.3575 4.0725 0 0 0
324 Si 1 24.435 2.715 5.43 0 0 0
329 Si 1 27.15 0 5.43 0 0 0
47 Si 1 31.2225 1.3575 4.0725 0 0 0
332 Si 1 29.865 2.715 5.43 0 0 0
6 Si 1 1.3575 4.0725 4.0725 0 0 0
337 Si 1 0 5.43 5.43 0 0 0
345 Si 1 5.43 5.43 5.43 0 0 0
14 Si 1 6.7875 4.0725 4.0725 0 0 0
353 Si 1 10.86 5.43 5.43 0 0 0
22 Si 1 12.2175 4.0725 4.0725 0 0 0
30 Si 1 17.6475 4.0725 4.0725 0 0 0
361 Si 1 16.29 5.43 5.43 0 0 0
38 Si 1 23.0775 4.0725 4.0725 0 0 0
369 Si 1 21.72 5.43 5.43 0 0 0
46 Si 1 28.5075 4.0725 4.0725 0 0 0
377 Si 1 27.15 5.43 5.43 0 0 0
340 Si 1 2.715 8.145 5.43 0 0 0
55 Si 1 4.0725 6.7875 4.0725 0 0 0
348 Si 1 8.145 8.145 5.43 0 0 0
63 Si 1 9.5025 6.7875 4.0725 0 0 0
356 Si 1 13.575 8.145 5.43 0 0 0
71 Si 1 14.9325 6.7875 4.0725 0 0 0
79 Si 1 20.3625 6.7875 4.0725 0 0 0
364 Si 1 19.005 8.145 5.43 0 0 0
87 Si 1 25.7925 6.7875 4.0725 0 0 0
372 Si 1 24.435 8.145 5.43 0 0 0
95 Si 1 31.2225 6.7875 4.0725 0 0 0
380 Si 1 29.865 8.145 5.43 0 0 0
54 Si 1 1.3575 9.5025 4.0725 0 0 0
385 Si 1 0 10.86 5.43 0 0 0
393 Si 1 5.43 10.86 5.43 0 0 0
62 Si 1 6.7875 9.5025 4.0725 0 0 0
401 Si 1 10.86 10.86 5.43 0 0 0
70 Si 1 12.2175 9.5025 4.0725 0 0 0
78 Si 1 17.6475 9.5025 4.0725 0 0 0
409 Si 1 16.29 10.86 5.43 0 0 0
86 Si 1 23.0775 9.5025 4.0725 0 0 0
417 Si 1 21.72 10.86 5.43 0 0 0
94 Si 1 28.5075 9.5025 4.0725 0 0 0
425 Si 1 27.15 10.86 5.43 0 0 0
388 Si 1 2.715 13.575 5.43 0 0 0
103 Si 1 4.0725 12.2175 4.0725 0 0 0
396 Si 1 8.145 13.575 5.43 0 0 0
111 Si 1 9.5025 12.2175 4.0725 0 0 0
404 Si 1 13.575 13.575 5.43 0 0 0
119 Si 1 14.9325 12.2175 4.0725 0 0 0
127 Si 1 20.3625 12.2175 4.0725 0 0 0
412 Si 1 19.005 13.575 5.43 0 0 0
135 Si 1 25.7925 12.2175 4.0725 0 0 0
420 Si 1 24.435 13.575 5.43 0 0 0
143 Si 1 31.2225 12.2175 4.0725 0 0 0
428 Si 1 29.865 13.575 5.43 0 0 0
102 Si 1 1.3575 14.9325 4.0725 0 0 0
433 Si 1 0 16.29 5.43 0 0 0
151 Si 1 4.0725 17.6475 4.0725 0 0 0
441 Si 1 5.43 16.29 5.43 0 0 0
110 Si 1 6.7875 14.9325 4.0725 0 0 0
159 Si 1 9.5025 17.6475 4.0725 0 0 0
449 Si 1 10.86 16.29 5.43 0 0 0
118 Si 1 12.2175 14.9325 4.0725 0 0 0
126 Si 1 17.6475 14.9325 4.0725 0 0 0
167 Si 1 14.9325 17.6475 4.0725 0 0 0
457 Si 1 16.29 16.29 5.43 0 0 0
175 Si 1 20.3625 17.6475 4.0725 0 0 0
134 Si 1 23.0775 14.9325 4.0725 0 0 0
465 Si 1 21.72 16.29 5.43 0 0 0
183 Si 1 25.7925 17.6475 4.0725 0 0 0
142 Si 1 28.5075 14.9325 4.0725 0 0 0
473 Si 1 27.15 16.29 5.43 0 0 0
191 Si 1 31.2225 17.6475 4.0725 0 0 0
150 Si 1 1.3575 20.3625 4.0725 0 0 0
436 Si 1 2.715 19.005 5.43 0 0 0
158 Si 1 6.7875 20.3625 4.0725 0 0 0
444 Si 1 8.145 19.005 5.43 0 0 0
166 Si 1 12.2175 20.3625 4.0725 0 0 0
452 Si 1 13.575 19.005 5.43 0 0 0
174 Si 1 17.6475 20.3625 4.0725 0 0 0
460 Si 1 19.005 19.005 5.43 0 0 0
182 Si 1 23.0775 20.3625 4.0725 0 0 0
468 Si 1 24.435 19.005 5.43 0 0 0
190 Si 1 28.5075 20.3625 4.0725 0 0 0
476 Si 1 29.865 19.005 5.43 0 0 0
481 Si 1 0 21.72 5.43 0 0 0
199 Si 1 4.0725 23.0775 4.0725 0 0 0
489 Si 1 5.43 21.72 5.43 0 0 0
207 Si 1 9.5025 23.0775 4.0725 0 0 0
497 Si 1 10.86 21.72 5.43 0 0 0
215 Si 1 14.9325 23.0775 4.0725 0 0 0
505 Si 1 16.29 21.72 5.43 0 0 0
223 Si 1 20.3625 23.0775 4.0725 0 0 0
513 Si 1 21.72 21.72 5.43 0 0 0
231 Si 1 25.7925 23.0775 4.0725 0 0 0
521 Si 1 27.15 21.72 5.43 0 0 0
239 Si 1 31.2225 23.0775 4.0725 0 0 0
198 Si 1 1.3575 25.7925 4.0725 0 0 0
484 Si 1 2.715 24.435 5.43 0 0 0
206 Si 1 6.7875 25.7925 4.0725 0 0 0
492 Si 1 8.145 24.435 5.43 0 0 0
214 Si 1 12.2175 25.7925 4.0725 0 0 0
500 Si 1 13.575 24.435 5.43 0 0 0
222 Si 1 17.6475 25.7925 4.0725 0 0 0
508 Si 1 19.005 24.435 5.43 0 0 0
230 Si 1 23.0775 25.7925 4.0725 0 0 0
516 Si 1 24.435 24.435 5.43 0 0 0
238 Si 1 28.5075 25.7925 4.0725 0 0 0
524 Si 1 29.865 24.435 5.43 0 0 0
529 Si 1 0 27.15 5.43 0 0 0
247 Si 1 4.0725 28.5075 4.0725 0 0 0
537 Si 1 5.43 27.15 5.43 0 0 0
255 Si 1 9.5025 28.5075 4.0725 0 0 0
545 Si 1 10.86 27.15 5.43 0 0 0
263 Si 1 14.9325 28.5075 4.0725 0 0 0
553 Si 1 16.29 27.15 5.43 0 0 0
271 Si 1 20.3625 28.5075 4.0725 0 0 0
561 Si 1 21.72 27.15 5.43 0 0 0
279 Si 1 25.7925 28.5075 4.0725 0 0 0
569 Si 1 27.15 27.15 5.43 0 0 0
287 Si 1 31.2225 28.5075 4.0725 0 0 0
246 Si 1 1.3575 31.2225 4.0725 0 0 0
532 Si 1 2.715 29.865 5.43 0 0 0
254 Si 1 6.7875 31.2225 4.0725 0 0 0
540 Si 1 8.145 29.865 5.43 0 0 0
262 Si 1 12.2175 31.2225 4.0725 0 0 0
548 Si 1 13.575 29.865 5.43 0 0 0
270 Si 1 17.6475 31.2225 4.0725 0 0 0
556 Si 1 19.005 29.865 5.43 0 0 0
278 Si 1 23.0775 31.2225 4.0725 0 0 0
564 Si 1 24.435 29.865 5.43 0 0 0
286 Si 1 28.5075 31.2225 4.0725 0 0 0
572 Si 1 29.865 29.865 5.43 0 0 0
290 Si 1 0 2.715 8.145 0 0 0
291 Si 1 2.715 0 8.145 0 0 0
293 Si 1 1.3575 1.3575 6.7875 0 0 0
298 Si 1 5.43 2.715 8.145 0 0 0
299 Si 1 8.145 0 8.145 0 0 0
301 Si 1 6.7875 1.3575 6.7875 0 0 0
306 Si 1 10.86 2.715 8.145 0 0 0
307 Si 1 13.575 0 8.145 0 0 0
309 Si 1 12.2175 1.3575 6.7875 0 0 0
314 Si 1 16.29 2.715 8.145 0 0 0
317 Si 1 17.6475 1.3575 6.7875 0 0 0
315 Si 1 19.005 0 8.145 0 0 0
322 Si 1 21.72 2.715 8.145 0 0 0
325 Si 1 23.0775 1.3575 6.7875 0 0 0
323 Si 1 24.435 0 8.145 0 0 0
330 Si 1 27.15 2.715 8.145 0 0 0
333 Si 1 28.5075 1.3575 6.7875 0 0 0
331 Si 1 29.865 0 8.145 0 0 0
339 Si 1 2.715 5.43 8.145 0 0 0
296 Si 1 4.0725 4.0725 6.7875 0 0 0
347 Si 1 8.145 5.43 8.145 0 0 0
304 Si 1 9.5025 4.0725 6.7875 0 0 0
355 Si 1 13.575 5.43 8.145 0 0 0
312 Si 1 14.9325 4.0725 6.7875 0 0 0
320 Si 1 20.3625 4.0725 6.7875 0 0 0
363 Si 1 19.005 5.43 8.145 0 0 0
328 Si 1 25.7925 4.0725 6.7875 0 0 0
371 Si 1 24.435 5.43 8.145 0 0 0
336 Si 1 31.2225 4.0725 6.7875 0 0 0
379 Si 1 29.865 5.43 8.145 0 0 0
338 Si 1 0 8.145 8.145 0 0 0
341 Si 1 1.3575 6.7875 6.7875 0 0 0
346 Si 1 5.43 8.145 8.145 0 0 0
349 Si 1 6.7875 6.7875 6.7875 0 0 0
354 Si 1 10.86 8.145 8.145 0 0 0
357 Si 1 12.2175 6.7875 6.7875 0 0 0
362 Si 1 16.29 8.145 8.145 0 0 0
365 Si 1 17.6475 6.7875 6.7875 0 0 0
370 Si 1 21.72 8.145 8.145 0 0 0
373 Si 1 23.0775 6.7875 6.7875 0 0 0
378 Si 1 27.15 8.145 8.145 0 0 0
381 Si 1 28.5075 6.7875 6.7875 0 0 0
387 Si 1 2.715 10.86 8.145 0 0 0
344 Si 1 4.0725 9.5025 6.7875 0 0 0
395 Si 1 8.145 10.86 8.145 0 0 0
352 Si 1 9.5025 9.5025 6.7875 0 0 0
403 Si 1 13.575 10.86 8.145 0 0 0
360 Si 1 14.9325 9.5025 6.7875 0 0 0
368 Si 1 20.3625 9.5025 6.7875 0 0 0
411 Si 1 19.005 10.86 8.145 0 0 0
376 Si 1 25.7925 9.5025 6.7875 0 0 0
419 Si 1 24.435 10.86 8.145 0 0 0
384 Si 1 31.2225 9.5025 6.7875 0 0 0
427 Si 1 29.865 10.86 8.145 0 0 0
386 Si 1 0 13.575 8.145 0 0 0
389 Si 1 1.3575 12.2175 6.7875 0 0 0
394 Si 1 5.43 13.575 8.145 0 0 0
397 Si 1 6.7875 12.2175 6.7875 0 0 0
402 Si 1 10.86 13.575 8.145 0 0 0
405 Si 1 12.2175 12.2175 6.7875 0 0 0
410 Si 1 16.29 13.575 8.145 0 0 0
413 Si 1 17.6475 12.2175 6.7875 0 0 0
418 Si 1 21.72 13.575 8.145 0 0 0
421 Si 1 23.0775 12.2175 6.7875 0 0 0
426 Si 1 27.15 13.575 8.145 0 0 0
429 Si 1 28.5075 12.2175 6.7875 0 0 0
435 Si 1 2.715 16.29 8.145 0 0 0
437 Si 1 1.3575 17.6475 6.7875 0 0 0
392 Si 1 4.0725 14.9325 6.7875 0 0 0
443 Si 1 8.145 16.29 8.145 0 0 0
445 Si 1 6.7875 17.6475 6.7875 0 0 0
400 Si 1 9.5025 14.9325 6.7875 0 0 0
451 Si 1 13.575 16.29 8.145 0 0 0
453 Si 1 12.2175 17.6475 6.7875 0 0 0
408 Si 1 14.9325 14.9325 6.7875 0 0 0
461 Si 1 17.6475 17.6475 6.7875 0 0 0
416 Si 1 20.3625 14.9325 6.7875 0 0 0
459 Si 1 19.005 16.29 8.145 0 0 0
469 Si 1 23.0775 17.6475 6.7875 0 0 0
424 Si 1 25.7925 14.9325 6.7875 0 0 0
467 Si 1 24.435 16.29 8.145 0 0 0
477 Si 1 28.5075 17.6475 6.7875 0 0 0
432 Si 1 31.2225 14.9325 6.7875 0 0 0
475 Si 1 29.865 16.29 8.145 0 0 0
434 Si 1 0 19.005 8.145 0 0 0
440 Si 1 4.0725 20.3625 6.7875 0 0 0
442 Si 1 5.43 19.005 8.145 0 0 0
448 Si 1 9.5025 20.3625 6.7875 0 0 0
450 Si 1 10.86 19.005 8.145 0 0 0
456 Si 1 14.9325 20.3625 6.7875 0 0 0
458 Si 1 16.29 19.005 8.145 0 0 0
464 Si 1 20.3625 20.3625 6.7875 0 0 0
466 Si 1 21.72 19.005 8.145 0 0 0
472 Si 1 25.7925 20.3625 6.7875 0 0 0
474 Si 1 27.15 19.005 8.145 0 0 0
480 Si 1 31.2225 20.3625 6.7875 0 0 0
483 Si 1 2.715 21.72 8.145 0 0 0
485 Si 1 1.3575 23.0775 6.7875 0 0 0
491 Si 1 8.145 21.72 8.145 0 0 0
493 Si 1 6.7875 23.0775 6.7875 0 0 0
499 Si 1 13.575 21.72 8.145 0 0 0
501 Si 1 12.2175 23.0775 6.7875 0 0 0
509 Si 1 17.6475 23.0775 6.7875 0 0 0
507 Si 1 19.005 21.72 8.145 0 0 0
517 Si 1 23.0775 23.0775 6.7875 0 0 0
515 Si 1 24.435 21.72 8.145 0 0 0
525 Si 1 28.5075 23.0775 6.7875 0 0 0
523 Si 1 29.865 21.72 8.145 0 0 0
482 Si 1 0 24.435 8.145 0 0 0
488 Si 1 4.0725 25.7925 6.7875 0 0 0
490 Si 1 5.43 24.435 8.145 0 0 0
496 Si 1 9.5025 25.7925 6.7875 0 0 0
498 Si 1 10.86 24.435 8.145 0 0 0
504 Si 1 14.9325 25.7925 6.7875 0 0 0
506 Si 1 16.29 24.435 8.145 0 0 0
512 Si 1 20.3625 25.7925 6.7875 0 0 0
514 Si 1 21.72 24.435 8.145 0 0 0
520 Si 1 25.7925 25.7925 6.7875 0 0 0
522 Si 1 27.15 24.435 8.145 0 0 0
528 Si 1 31.2225 25.7925 6.7875 0 0 0
531 Si 1 2.715 27.15 8.145 0 0 0
533 Si 1 1.3575 28.5075 6.7875 0 0 0
539 Si 1 8.145 27.15 8.145 0 0 0
541 Si 1 6.7875 28.5075 6.7875 0 0 0
547 Si 1 13.575 27.15 8.145 0 0 0
549 Si 1 12.2175 28.5075 6.7875 0 0 0
557 Si 1 17.6475 28.5075 6.7875 0 0 0
555 Si 1 19.005 27.15 8.145 0 0 0
565 Si 1 23.0775 28.5075 6.7875 0 0 0
563 Si 1 24.435 27.15 8.145 0 0 0
573 Si 1 28.5075 28.5075 6.7875 0 0 0
571 Si 1 29.865 27.15 8.145 0 0 0
530 Si 1 0 29.865 8.145 0 0 0
536 Si 1 4.0725 31.2225 6.7875 0 0 0
538 Si 1 5.43 29.865 8.145 0 0 0
544 Si 1 9.5025 31.2225 6.7875 0 0 0
546 Si 1 10.86 29.865 8.145 0 0 0
552 Si 1 14.9325 31.2225 6.7875 0 0 0
554 Si 1 16.29 29.865 8.145 0 0 0
560 Si 1 20.3625 31.2225 6.7875 0 0 0
562 Si 1 21.72 29.865 8.145 0 0 0
568 Si 1 25.7925 31.2225 6.7875 0 0 0
570 Si 1 27.15 29.865 8.145 0 0 0
576 Si 1 31.2225 31.2225 6.7875 0 0 0
577 Si 1 0 0 10.86 0 0 0
580 Si 1 2.715 2.715 10.86 0 0 0
295 Si 1 4.0725 1.3575 9.5025 0 0 0
585 Si 1 5.43 0 10.86 0 0 0
588 Si 1 8.145 2.715 10.86 0 0 0
303 Si 1 9.5025 1.3575 9.5025 0 0 0
593 Si 1 10.86 0 10.86 0 0 0
596 Si 1 13.575 2.715 10.86 0 0 0
311 Si 1 14.9325 1.3575 9.5025 0 0 0
601 Si 1 16.29 0 10.86 0 0 0
319 Si 1 20.3625 1.3575 9.5025 0 0 0
604 Si 1 19.005 2.715 10.86 0 0 0
609 Si 1 21.72 0 10.86 0 0 0
327 Si 1 25.7925 1.3575 9.5025 0 0 0
612 Si 1 24.435 2.715 10.86 0 0 0
617 Si 1 27.15 0 10.86 0 0 0
335 Si 1 31.2225 1.3575 9.5025 0 0 0
620 Si 1 29.865 2.715 10.86 0 0 0
294 Si 1 1.3575 4.0725 9.5025 0 0 0
625 Si 1 0 5.43 10.86 0 0 0
633 Si 1 5.43 5.43 10.86 0 0 0
302 Si 1 6.7875 4.0725 9.5025 0 0 0
641 Si 1 10.86 5.43 10.86 0 0 0
310 Si 1 12.2175 4.0725 9.5025 0 0 0
318 Si 1 17.6475 4.0725 9.5025 0 0 0
649 Si 1 16.29 5.43 10.86 0 0 0
326 Si 1 23.0775 4.0725 9.5025 0 0 0
657 Si 1 21.72 5.43 10.86 0 0 0
334 Si 1 28.5075 4.0725 9.5025 0 0 0
665 Si 1 27.15 5.43 10.86 0 0 0
628 Si 1 2.715 8.145 10.86 0 0 0
343 Si 1 4.0725 6.7875 9.5025 0 0 0
636 Si 1 8.145 8.145 10.86 0 0 0
351 Si 1 9.5025 6.7875 9.5025 0 0 0
644 Si 1 13.575 8.145 10.86 0 0 0
359 Si 1 14.9325 6.7875 9.5025 0 0 0
367 Si 1 20.3625 6.7875 9.5025 0 0 0
652 Si 1 19.005 8.145 10.86 0 0 0
375 Si 1 25.7925 6.7875 9.5025 0 0 0
660 Si 1 24.435 8.145 10.86 0 0 0
383 Si 1 31.2225 6.7875 9.5025 0 0 0
668 Si 1 29.865 8.145 10.86 0 0 0
342 Si 1 1.3575 9.5025 9.5025 0 0 0
673 Si 1 0 10.86 10.86 0 0 0
681 Si 1 5.43 10.86 10.86 0 0 0
350 Si 1 6.7875 9.5025 9.5025 0 0 0
689 Si 1 10.86 10.86 10.86 0 0 0
358 Si 1 12.2175 9.5025 9.5025 0 0 0
366 Si 1 17.6475 9.5025 9.5025 0 0 0
697 Si 1 16.29 10.86 10.86 0 0 0
374 Si 1 23.0775 9.5025 9.5025 0 0 0
705 Si 1 21.72 10.86 10.86 0 0 0
382 Si 1 28.5075 9.5025 9.5025 0 0 0
713 Si 1 27.15 10.86 10.86 0 0 0
676 Si 1 2.715 13.575 10.86 0 0 0
391 Si 1 4.0725 12.2175 9.5025 0 0 0
684 Si 1 8.145 13.575 10.86 0 0 0
399 Si 1 9.5025 12.2175 9.5025 0 0 0
692 Si 1 13.575 13.575 10.86 0 0 0
407 Si 1 14.9325 12.2175 9.5025 0 0 0
415 Si 1 20.3625 12.2175 9.5025 0 0 0
700 Si 1 19.005 13.575 10.86 0 0 0
423 Si 1 25.7925 12.2175 9.5025 0 0 0
708 Si 1 24.435 13.575 10.86 0 0 0
431 Si 1 31.2225 12.2175 9.5025 0 0 0
716 Si 1 29.865 13.575 10.86 0 0 0
390 Si 1 1.3575 14.9325 9.5025 0 0 0
721 Si 1 0 16.29 10.86 0 0 0
439 Si 1 4.0725 17.6475 9.5025 0 0 0
729 Si 1 5.43 16.29 10.86 0 0 0
398 Si 1 6.7875 14.9325 9.5025 0 0 0
447 Si 1 9.5025 17.6475 9.5025 0 0 0
737 Si 1 10.86 16.29 10.86 0 0 0
406 Si 1 12.2175 14.9325 9.5025 0 0 0
414 Si 1 17.6475 14.9325 9.5025 0 0 0
455 Si 1 14.9325 17.6475 9.5025 0 0 0
745 Si 1 16.29 16.29 10.86 0 0 0
463 Si 1 20.3625 17.6475 9.5025 0 0 0
422 Si 1 23.0775 14.9325 9.5025 0 0 0
753 Si 1 21.72 16.29 10.86 0 0 0
471 Si 1 25.7925 17.6475 9.5025 0 0 0
430 Si 1 28.5075 14.9325 9.5025 0 0 0
761 Si 1 27.15 16.29 10.86 0 0 0
479 Si 1 31.2225 17.6475 9.5025 0 0 0
438 Si 1 1.3575 20.3625 9.5025 0 0 0
724 Si 1 2.715 19.005 10.86 0 0 0
446 Si 1 6.7875 20.3625 9.5025 0 0 0
732 Si 1 8.145 19.005 10.86 0 0 0
454 Si 1 12.2175 20.3625 9.5025 0 0 0
740 Si 1 13.575 19.005 10.86 0 0 0
462 Si 1 17.6475 20.3625 9.5025 0 0 0
748 Si 1 19.005 19.005 10.86 0 0 0
470 Si 1 23.0775 20.3625 9.5025 0 0 0
756 Si 1 24.435 19.005 10.86 0 0 0
478 Si 1 28.5075 20.3625 9.5025 0 0 0
764 Si 1 29.865 19.005 10.86 0 0 0
769 Si 1 0 21.72 10.86 0 0 0
487 Si 1 4.0725 23.0775 9.5025 0 0 0
777 Si 1 5.43 21.72 10.86 0 0 0
495 Si 1 9.5025 23.0775 9.5025 0 0 0
785 Si 1 10.86 21.72 10.86 0 0 0
503 Si 1 14.9325 23.0775 9.5025 0 0 0
793 Si 1 16.29 21.72 10.86 0 0 0
511 Si 1 20.3625 23.0775 9.5025 0 0 0
801 Si 1 21.72 21.72 10.86 0 0 0
519 Si 1 25.7925 23.0775 9.5025 0 0 0
809 Si 1 27.15 21.72 10.86 0 0 0
527 Si 1 31.2225 23.0775 9.5025 0 0 0
486 Si 1 1.3575 25.7925 9.5025 0 0 0
772 Si 1 2.715 24.435 10.86 0 0 0
494 Si 1 6.7875 25.7925 9.5025 0 0 0
780 Si 1 8.145 24.435 10.86 0 0 0
502 Si 1 12.2175 25.7925 9.5025 0 0 0
788 Si 1 13.575 24.435 10.86 0 0 0
510 Si 1 17.6475 25.7925 9.5025 0 0 0
796 Si 1 19.005 24.435 10.86 0 0 0
518 Si 1 23.0775 25.7925 9.5025 0 0 0
804 Si 1 24.435 24.435 10.86 0 0 0
526 Si 1 28.5075 25.7925 9.5025 0 0 0
812 Si 1 29.865 24.435 10.86 0 0 0
817 Si 1 0 27.15 10.86 0 0 0
535 Si 1 4.0725 28.5075 9.5025 0 0 0
825 Si 1 5.43 27.15 10.86 0 0 0
543 Si 1 9.5025 28.5075 9.5025 0 0 0
833 Si 1 10.86 27.15 10.86 0 0 0
551 Si 1 14.9325 28.5075 9.5025 0 0 0
841 Si 1 16.29 27.15 10.86 0 0 0
559 Si 1 20.3625 28.5075 9.5025 0 0 0
849 Si 1 21.72 27.15 10.86 0 0 0
567 Si 1 25.7925 28.5075 9.5025 0 0 0
857 Si 1 27.15 27.15 10.86 0 0 0
575 Si 1 31.2225 28.5075 9.5025 0 0 0
534 Si 1 1.3575 31.2225 9.5025 0 0 0
820 Si 1 2.715 29.865 10.86 0 0 0
542 Si 1 6.7875 31.2225 9.5025 0 0 0
828 Si 1 8.145 29.865 10.86 0 0 0
550 Si 1 12.2175 31.2225 9.5025 0 0 0
836 Si 1 13.575 29.865 10.86 0 0 0
558 Si 1 17.6475 31.2225 9.5025 0 0 0
844 Si 1 19.005 29.865 10.86 0 0 0
566 Si 1 23.0775 31.2225 9.5025 0 0 0
852 Si 1 24.435 29.865 10.86 0 0 0
574 Si 1 28.5075 31.2225 9.5025 0 0 0
860 Si 1 29.865 29.865 10.86 0 0 0
578 Si 1 0 2.715 13.575 0 0 0
579 Si 1 2.715 0 13.575 0 0 0
581 Si 1 1.3575 1.3575 12.2175 0 0 0
586 Si 1 5.43 2.715 13.575 0 0 0
587 Si 1 8.145 0 13.575 0 0 0
589 Si 1 6.7875 1.3575 12.2175 0 0 0
594 Si 1 10.86 2.715 13.575 0 0 0
595 Si 1 13.575 0 13.575 0 0 0
597 Si 1 12.2175 1.3575 12.2175 0 0 0
602 Si 1 16.29 2.715 13.575 0 0 0
605 Si 1 17.6475 1.3575 12.2175 0 0 0
603 Si 1 19.005 0 13.575 0 0 0
610 Si 1 21.72 2.715 13.575 0 0 0
613 Si 1 23.0775 1.3575 12.2175 0 0 0
611 Si 1 24.435 0 13.575 0 0 0
618 Si 1 27.15 2.715 13.575 0 0 0
621 Si 1 28.5075 1.3575 12.2175 0 0 0
619 Si 1 29.865 0 13.575 0 0 0
627 Si 1 2.715 5.43 13.575 0 0 0
584 Si 1 4.0725 4.0725 12.2175 0 0 0
635 Si 1 8.145 5.43 13.575 0 0 0
592 Si 1 9.5025 4.0725 12.2175 0 0 0
643 Si 1 13.575 5.43 13.575 0 0 0
600 Si 1 14.9325 4.0725 12.2175 0 0 0
608 Si 1 20.3625 4.0725 12.2175 0 0 0
651 Si 1 19.005 5.43 13.575 0 0 0
616 Si 1 25.7925 4.0725 12.2175 0 0 0
659 Si 1 24.435 5.43 13.575 0 0 0
624 Si 1 31.2225 4.0725 12.2175 0 0 0
667 Si 1 29.865 5.43 13.575 0 0 0
626 Si 1 0 8.145 13.575 0 0 0
629 Si 1 1.3575 6.7875 12.2175 0 0 0
634 Si 1 5.43 8.145 13.575 0 0 0
637 Si 1 6.7875 6.7875 12.2175 0 0 0
642 Si 1 10.86 8.145 13.575 0 0 0
645 Si 1 12.2175 6.7875 12.2175 0 0 0
650 Si 1 16.29 8.145 13.575 0 0 0
653 Si 1 17.6475 6.7875 12.2175 0 0 0
658 Si 1 21.72 8.145 13.575 0 0 0
661 Si 1 23.0775 6.7875 12.2175 0 0 0
666 Si 1 27.15 8.145 13.575 0 0 0
669 Si 1 28.5075 6.7875 12.2175 0 0 0
675 Si 1 2.715 10.86 13.575 0 0 0
632 Si 1 4.0725 9.5025 12.2175 0 0 0
683 Si 1 8.145 10.86 13.575 0 0 0
640 Si 1 9.5025 9.5025 12.2175 0 0 0
691 Si 1 13.575 10.86 13.575 0 0 0
648 Si 1 14.9325 9.5025 12.2175 0 0 0
656 Si 1 20.3625 9.5025 12.2175 0 0 0
699 Si 1 19.005 10.86 13.575 0 0 0
664 Si 1 25.7925 9.5025 12.2175 0 0 0
707 Si 1 24.435 10.86 13.575 0 0 0
672 Si 1 31.2225 9.5025 12.2175 0 0 0
715 Si 1 29.865 10.86 13.575 0 0 0
674 Si 1 0 13.575 13.575 0 0 0
677 Si 1 1.3575 12.2175 12.2175 0 0 0
682 Si 1 5.43 13.575 13.575 0 0 0
685 Si 1 6.7875 12.2175 12.2175 0 0 0
690 Si 1 10.86 13.575 13.575 0 0 0
693 Si 1 12.2175 12.2175 12.2175 0 0 0
698 Si 1 16.29 13.575 13.575 0 0 0
701 Si 1 17.6475 12.2175 12.2175 0 0 0
706 Si 1 21.72 13.575 13.575 0 0 0
709 Si 1 23.0775 12.2175 12.2175 0 0 0
714 Si 1 27.15 13.575 13.575 0 0 0
717 Si 1 28.5075 12.2175 12.2175 0 0 0
723 Si 1 2.715 16.29 13.575 0 0 0
725 Si 1 1.3575 17.6475 12.2175 0 0 0
680 Si 1 4.0725 14.9325 12.2175 0 0 0
731 Si 1 8.145 16.29 13.575 0 0 0
733 Si 1 6.7875 17.6475 12.2175 0 0 0
688 Si 1 9.5025 14.9325 12.2175 0 0 0
739 Si 1 13.575 16.29 13.575 0 0 0
741 Si 1 12.2175 17.6475 12.2175 0 0 0
696 Si 1 14.9325 14.9325 12.2175 0 0 0
749 Si 1 17.6475 17.6475 12.2175 0 0 0
704 Si 1 20.3625 14.9325 12.2175 0 0 0
747 Si 1 19.005 16.29 13.575 0 0 0
757 Si 1 23.0775 17.6475 12.2175 0 0 0
712 Si 1 25.7925 14.9325 12.2175 0 0 0
755 Si 1 24.435 16.29 13.575 0 0 0
765 Si 1 28.5075 17.6475 12.2175 0 0 0
720 Si 1 31.2225 14.9325 12.2175 0 0 0
763 Si 1 29.865 16.29 13.575 0 0 0
722 Si 1 0 19.005 13.575 0 0 0
728 Si 1 4.0725 20.3625 12.2175 0 0 0
730 Si 1 5.43 19.005 13.575 0 0 0
736 Si 1 9.5025 20.3625 12.2175 0 0 0
738 Si 1 10.86 19.005 13.575 0 0 0
744 Si 1 14.9325 20.3625 12.2175 0 0 0
746 Si 1 16.29 19.005 13.575 0 0 0
752 Si 1 20.3625 20.3625 12.2175 0 0 0
754 Si 1 21.72 19.005 13.575 0 0 0
760 Si 1 25.7925 20.3625 12.2175 0 0 0
762 Si 1 27.15 19.005 13.575 0 0 0
768 Si 1 31.2225 20.3625 12.2175 0 0 0
771 Si 1 2.715 21.72 13.575 0 0 0
773 Si 1 1.3575 23.0775 12.2175 0 0 0
779 Si 1 8.145 21.72 13.575 0 0 0
781 Si 1 6.7875 23.0775 12.2175 0 0 0
787 Si 1 13.575 21.72 13.575 0 0 0
789 Si 1 12.2175 23.0775 12.2175 0 0 0
797 Si 1 17.6475 23.0775 12.2175 0 0 0
795 Si 1 19.005 21.72 13.575 0 0 0
805 Si 1 23.0775 23.0775 12.2175 0 0 0
803 Si 1 24.435 21.72 13.575 0 0 0
813 Si 1 28.5075 23.0775 12.2175 0 0 0
811 Si 1 29.865 21.72 13.575 0 0 0
770 Si 1 0 24.435 13.575 0 0 0
776 Si 1 4.0725 25.7925 12.2175 0 0 0
778 Si 1 5.43 24.435 13.575 0 0 0
784 Si 1 9.5025 25.7925 12.2175 0 0 0
786 Si 1 10.86 24.435 13.575 0 0 0
792 Si 1 14.9325 25.7925 12.2175 0 0 0
794 Si 1 16.29 24.435 13.575 0 0 0
800 Si 1 20.3625 25.7925 12.2175 0 0 0
802 Si 1 21.72 24.435 13.575 0 0 0
808 Si 1 25.7925 25.7925 12.2175 0 0 0
810 Si 1 27.15 24.435 13.575 0 0 0
816 Si 1 31.2225 25.7925 12.2175 0 0 0
819 Si 1 2.715 27.15 13.575 0 0 0
821 Si 1 1.3575 28.5075 12.2175 0 0 0
827 Si 1 8.145 27.15 13.575 0 0 0
829 Si 1 6.7875 28.5075 12.2175 0 0 0
835 Si 1 13.575 27.15 13.575 0 0 0
837 Si 1 12.2175 28.5075 12.2175 0 0 0
845 Si 1 17.6475 28.5075 12.2175 0 0 0
843 Si 1 19.005 27.15 13.575 0 0 0
853 Si 1 23.0775 28.5075 12.2175 0 0 0
851 Si 1 24.435 27.15 13.575 0 0 0
861 Si 1 28.5075 28.5075 12.2175 0 0 0
859 Si 1 29.865 27.15 13.575 0 0 0
818 Si 1 0 29.865 13.575 0 0 0
824 Si 1 4.0725 31.2225 12.2175 0 0 0
826 Si 1 5.43 29.865 13.575 0 0 0
832 Si 1 9.5025 31.2225 12.2175 0 0 0
834 Si 1 10.86 29.865 13.575 0 0 0
840 Si 1 14.9325 31.2225 12.2175 0 0 0
842 Si 1 16.29 29.865 13.575 0 0 0
848 Si 1 20.3625 31.2225 12.2175 0 0 0
850 Si 1 21.72 29.865 13.575 0 0 0
856 Si 1 25.7925 31.2225 12.2175 0 0 0
858 Si 1 27.15 29.865 13.575 0 0 0
864 Si 1 31.2225 31.2225 12.2175 0 0 0
865 Si 1 0 0 16.29 0 0 0
868 Si 1 2.715 2.715 16.29 0 0 0
869 Si 1 1.3575 1.3575 17.6475 0 0 0
583 Si 1 4.0725 1.3575 14.9325 0 0 0
873 Si 1 5.43 0 16.29 0 0 0
876 Si 1 8.145 2.715 16.29 0 0 0
877 Si 1 6.7875 1.3575 17.6475 0 0 0
591 Si 1 9.5025 1.3575 14.9325 0 0 0
881 Si 1 10.86 0 16.29 0 0 0
884 Si 1 13.575 2.715 16.29 0 0 0
885 Si 1 12.2175 1.3575 17.6475 0 0 0
599 Si 1 14.9325 1.3575 14.9325 0 0 0
889 Si 1 16.29 0 16.29 0 0 0
893 Si 1 17.6475 1.3575 17.6475 0 0 0
607 Si 1 20.3625 1.3575 14.9325 0 0 0
892 Si 1 19.005 2.715 16.29 0 0 0
897 Si 1 21.72 0 16.29 0 0 0
901 Si 1 23.0775 1.3575 17.6475 0 0 0
615 Si 1 25.7925 1.3575 14.9325 0 0 0
900 Si 1 24.435 2.715 16.29 0 0 0
905 Si 1 27.15 0 16.29 0 0 0
909 Si 1 28.5075 1.3575 17.6475 0 0 0
623 Si 1 31.2225 1.3575 14.9325 0 0 0
908 Si 1 29.865 2.715 16.29 0 0 0
582 Si 1 1.3575 4.0725 14.9325 0 0 0
913 Si 1 0 5.43 16.29 0 0 0
872 Si 1 4.0725 4.0725 17.6475 0 0 0
921 Si 1 5.43 5.43 16.29 0 0 0
590 Si 1 6.7875 4.0725 14.9325 0 0 0
880 Si 1 9.5025 4.0725 17.6475 0 0 0
929 Si 1 10.86 5.43 16.29 0 0 0
598 Si 1 12.2175 4.0725 14.9325 0 0 0
606 Si 1 17.6475 4.0725 14.9325 0 0 0
888 Si 1 14.9325 4.0725 17.6475 0 0 0
937 Si 1 16.29 5.43 16.29 0 0 0
896 Si 1 20.3625 4.0725 17.6475 0 0 0
614 Si 1 23.0775 4.0725 14.9325 0 0 0
945 Si 1 21.72 5.43 16.29 0 0 0
904 Si 1 25.7925 4.0725 17.6475 0 0 0
622 Si 1 28.5075 4.0725 14.9325 0 0 0
953 Si 1 27.15 5.43 16.29 0 0 0
912 Si 1 31.2225 4.0725 17.6475 0 0 0
916 Si 1 2.715 8.145 16.29 0 0 0
917 Si 1 1.3575 6.7875 17.6475 0 0 0
631 Si 1 4.0725 6.7875 14.9325 0 0 0
924 Si 1 8.145 8.145 16.29 0 0 0
925 Si 1 6.7875 6.7875 17.6475 0 0 0
639 Si 1 9.5025 6.7875 14.9325 0 0 0
932 Si 1 13.575 8.145 16.29 0 0 0
933 Si 1 12.2175 6.7875 17.6475 0 0 0
647 Si 1 14.9325 6.7875 14.9325 0 0 0
941 Si 1 17.6475 6.7875 17.6475 0 0 0
655 Si 1 20.3625 6.7875 14.9325 0 0 0
940 Si 1 19.005 8.145 16.29 0 0 0
949 Si 1 23.0775 6.7875 17.6475 0 0 0
663 Si 1 25.7925 6.7875 14.9325 0 0 0
948 Si 1 24.435 8.145 16.29 0 0 0
957 Si 1 28.5075 6.7875 17.6475 0 0 0
671 Si 1 31.2225 6.7875 14.9325 0 0 0
956 Si 1 29.865 8.145 16.29 0 0 0
630 Si 1 1.3575 9.5025 14.9325 0 0 0
961 Si 1 0 10.86 16.29 0 0 0
920 Si 1 4.0725 9.5025 17.6475 0 0 0
969 Si 1 5.43 10.86 16.29 0 0 0
638 Si 1 6.7875 9.5025 14.9325 0 0 0
928 Si 1 9.5025 9.5025 17.6475 0 0 0
977 Si 1 10.86 10.86 16.29 0 0 0
646 Si 1 12.2175 9.5025 14.9325 0 0 0
654 Si 1 17.6475 9.5025 14.9325 0 0 0