LAMMPS (29 Aug 2024)
OMP_NUM_THREADS environment is not set. Defaulting to 1 thread. (src/src/comm.cpp:98)
  using 1 OpenMP thread(s) per MPI task
# Si with Stillinger-Weber potential
units metal
atom_style atomic
boundary p p p
lattice diamond 5.3
Lattice spacing in x,y,z = 5.3 5.3 5.3
region box block 0 6 0 6 0 6
create_box 1 box
Created orthogonal box = (0 0 0) to (31.8 31.8 31.8)
  1 by 1 by 1 MPI processor grid
create_atoms 1 box
Created 1728 atoms
  using lattice units in orthogonal box = (0 0 0) to (31.8 31.8 31.8)
  create_atoms CPU = 0.000 seconds

# Change pair style to tersoff/zbl
pair_style  tersoff/zbl
pair_coeff * * SiC.tersoff.zbl Si
Reading tersoff/zbl potential file SiC.tersoff.zbl with DATE: 2009-04-15




mass 1 28.085 # Silicon mass
fix 1 all box/relax iso 0.0 vmax 0.001
dump 1 all custom 5 dump.xyz id element type x y z vx vy vz
dump_modify 1 element Si

#calculate potential energy per atom
compute peratom all pe/atom
compute eatom all reduce ave c_peratom
thermo 1
thermo_style custom time dt temp vol press etotal pe ke c_eatom





min_style cg
minimize 1e-25 1e-25 5000 10000
Neighbor list info ...
  update: every = 1 steps, delay = 0 steps, check = yes
  max neighbors/atom: 2000, page size: 100000
  master list distance cutoff = 5
  ghost atom cutoff = 5
  binsize = 2.5, bins = 13 13 13
  1 neighbor lists, perpetual/occasional/extra = 1 0 0
  (1) pair tersoff/zbl, perpetual
      attributes: full, newton on
      pair build: full/bin/atomonly
      stencil: full/bin/3d
      bin: standard
WARNING: Energy due to 1 extra global DOFs will be included in minimizer energies
 (src/src/min.cpp:219)
Per MPI rank memory allocation (min/avg/max) = 4.407 | 4.407 | 4.407 Mbytes
     Time            Dt            Temp          Volume         Press          TotEng         PotEng         KinEng        c_eatom    
 0              0.001          0              32157.432      84451.867     -7939.0822     -7939.0822      0             -4.5943763    
 0.001          0.001          0              32254.001      80508.701     -7944.0533     -7944.0533      0             -4.5972531    
 0.002          0.001          0              32350.763      76615.53      -7948.7977     -7948.7977      0             -4.5999987    
 0.003          0.001          0              32447.718      72771.831     -7953.3174     -7953.3174      0             -4.6026143    
 0.004          0.001          0              32544.867      68977.088     -7957.6147     -7957.6147      0             -4.6051011    
 0.005          0.001          0              32642.209      65230.789     -7961.6914     -7961.6914      0             -4.6074603    
 0.006          0.001          0              32739.746      61532.427     -7965.5496     -7965.5496      0             -4.6096931    
 0.007          0.001          0              32837.476      57881.5       -7969.1914     -7969.1914      0             -4.6118006    
 0.008          0.001          0              32935.401      54277.512     -7972.6187     -7972.6187      0             -4.613784     
 0.009          0.001          0              33033.52       50719.97      -7975.8335     -7975.8335      0             -4.6156444    
 0.01           0.001          0              33131.834      47208.388     -7978.8378     -7978.8378      0             -4.617383     
 0.011          0.001          0              33230.343      43742.284     -7981.6336     -7981.6336      0             -4.6190009    
 0.012          0.001          0              33329.047      40321.18      -7984.2227     -7984.2227      0             -4.6204993    
 0.013          0.001          0              33427.946      36944.604     -7986.6072     -7986.6072      0             -4.6218792    
 0.014          0.001          0              33527.041      33612.087     -7988.7889     -7988.7889      0             -4.6231417    
 0.015          0.001          0              33626.331      30323.167     -7990.7697     -7990.7697      0             -4.624288     
 0.016          0.001          0              33725.817      27077.384     -7992.5516     -7992.5516      0             -4.6253192    
 0.017          0.001          0              33825.5        23874.284     -7994.1364     -7994.1364      0             -4.6262363    
 0.018          0.001          0              33925.378      20713.417     -7995.5259     -7995.5259      0             -4.6270405    
 0.019          0.001          0              34025.453      17594.339     -7996.722      -7996.722       0             -4.6277327    
 0.02           0.001          0              34125.724      14516.607     -7997.7266     -7997.7266      0             -4.628314     
 0.021          0.001          0              34226.192      11479.787     -7998.5415     -7998.5415      0             -4.6287856    
 0.022          0.001          0              34326.858      8483.4453     -7999.1684     -7999.1684      0             -4.6291484    
 0.023          0.001          0              34427.72       5527.1542     -7999.6091     -7999.6091      0             -4.6294034    
 0.024          0.001          0              34528.78       2610.4901     -7999.8655     -7999.8655      0             -4.6295518    
 0.025          0.001          0              34620.618     -1.1683426     -7999.9401     -7999.9401      0             -4.629595     
 0.026          0.001          0              34620.576     -0.0056312169  -7999.9401     -7999.9401      0             -4.629595     
 0.027          0.001          0              34620.576     -9.6865041e-06 -7999.9401     -7999.9401      0             -4.629595     
 0.028          0.001          0              34620.576     -1.7662071e-09 -7999.9401     -7999.9401      0             -4.629595     
 0.029          0.001          0              34620.576      1.4949804e-09 -7999.9401     -7999.9401      0             -4.629595     
 0.03           0.001          0              34620.576     -1.0990601e-09 -7999.9401     -7999.9401      0             -4.629595     
 0.031          0.001          0              34620.576      1.520437e-09  -7999.9401     -7999.9401      0             -4.629595     
 0.032          0.001          0              34620.576     -1.073946e-09  -7999.9401     -7999.9401      0             -4.629595     
 0.033          0.001          0              34620.576      1.0170454e-09 -7999.9401     -7999.9401      0             -4.629595     
 0.034          0.001          0              34620.576     -6.7625826e-10 -7999.9401     -7999.9401      0             -4.629595     
 0.035          0.001          0              34620.576      1.4371481e-09 -7999.9401     -7999.9401      0             -4.629595     
 0.036          0.001          0              34620.576     -1.0743022e-09 -7999.9401     -7999.9401      0             -4.629595     
 0.037          0.001          0              34620.576      1.5959026e-09 -7999.9401     -7999.9401      0             -4.629595     
 0.038          0.001          0              34620.576     -4.7537292e-10 -7999.9401     -7999.9401      0             -4.629595     
 0.039          0.001          0              34620.576      1.128997e-09  -7999.9401     -7999.9401      0             -4.629595     
 0.04           0.001          0              34620.576     -1.2407979e-09 -7999.9401     -7999.9401      0             -4.629595     
 0.041          0.001          0              34620.576     -8.1774939e-10 -7999.9401     -7999.9401      0             -4.629595     
 0.042          0.001          0              34620.576     -2.9303885e-10 -7999.9401     -7999.9401      0             -4.629595     
 0.043          0.001          0              34620.576      2.3223343e-10 -7999.9401     -7999.9401      0             -4.629595     
 0.044          0.001          0              34620.576     -5.9873751e-11 -7999.9401     -7999.9401      0             -4.629595     
 0.045          0.001          0              34620.576      1.4784569e-09 -7999.9401     -7999.9401      0             -4.629595     
 0.046          0.001          0              34620.576     -1.0723019e-09 -7999.9401     -7999.9401      0             -4.629595     
 0.047          0.001          0              34620.576      1.588504e-09  -7999.9401     -7999.9401      0             -4.629595     
 0.048          0.001          0              34620.576     -8.0022569e-10 -7999.9401     -7999.9401      0             -4.629595     
 0.049          0.001          0              34620.576      9.4855366e-10 -7999.9401     -7999.9401      0             -4.629595     
 0.05           0.001          0              34620.576      2.7199398e-10 -7999.9401     -7999.9401      0             -4.629595     
 0.051          0.001          0              34620.576     -7.86415e-10   -7999.9401     -7999.9401      0             -4.629595     
 0.052          0.001          0              34620.576      3.8009556e-10 -7999.9401     -7999.9401      0             -4.629595     
 0.053          0.001          0              34620.576     -8.0998087e-10 -7999.9401     -7999.9401      0             -4.629595     
 0.054          0.001          0              34620.576      2.1530984e-09 -7999.9401     -7999.9401      0             -4.629595     
 0.055          0.001          0              34620.576      1.6810686e-09 -7999.9401     -7999.9401      0             -4.629595     
 0.056          0.001          0              34620.576     -8.0318513e-10 -7999.9401     -7999.9401      0             -4.629595     
 0.057          0.001          0              34620.576     -1.9982625e-09 -7999.9401     -7999.9401      0             -4.629595     
 0.058          0.001          0              34620.576      4.1059418e-10 -7999.9401     -7999.9401      0             -4.629595     
 0.059          0.001          0              34620.576      7.0790777e-10 -7999.9401     -7999.9401      0             -4.629595     
 0.06           0.001          0              34620.576      1.6757252e-09 -7999.9401     -7999.9401      0             -4.629595     
 0.061          0.001          0              34620.576     -9.8919109e-10 -7999.9401     -7999.9401      0             -4.629595     
 0.062          0.001          0              34620.576      1.3594219e-10 -7999.9401     -7999.9401      0             -4.629595     
 0.063          0.001          0              34620.576      2.5653779e-09 -7999.9401     -7999.9401      0             -4.629595     
 0.064          0.001          0              34620.576     -4.9035506e-09 -7999.9401     -7999.9401      0             -4.629595     
 0.065          0.001          0              34620.576      8.6855302e-10 -7999.9401     -7999.9401      0             -4.629595     
 0.066          0.001          0              34620.576     -1.5380155e-09 -7999.9401     -7999.9401      0             -4.629595     
 0.067          0.001          0              34620.576     -9.9469893e-11 -7999.9401     -7999.9401      0             -4.629595     
 0.068          0.001          0              34620.576      4.1445789e-11 -7999.9401     -7999.9401      0             -4.629595     
 0.069          0.001          0              34620.576     -1.1407799e-09 -7999.9401     -7999.9401      0             -4.629595     
 0.07           0.001          0              34620.576      2.9286348e-09 -7999.9401     -7999.9401      0             -4.629595     
 0.071          0.001          0              34620.576      3.4981616e-09 -7999.9401     -7999.9401      0             -4.629595     
 0.072          0.001          0              34620.576      9.4175792e-10 -7999.9401     -7999.9401      0             -4.629595     
 0.073          0.001          0              34620.576      8.0180132e-10 -7999.9401     -7999.9401      0             -4.629595     
 0.074          0.001          0              34620.576     -7.8434613e-10 -7999.9401     -7999.9401      0             -4.629595     
 0.075          0.001          0              34620.576     -5.9599729e-12 -7999.9401     -7999.9401      0             -4.629595     
 0.076          0.001          0              34620.576      1.0472837e-09 -7999.9401     -7999.9401      0             -4.629595     
 0.077          0.001          0              34620.576     -2.7981593e-09 -7999.9401     -7999.9401      0             -4.629595     
 0.078          0.001          0              34620.576     -7.4854519e-10 -7999.9401     -7999.9401      0             -4.629595     
 0.079          0.001          0              34620.576     -2.949707e-10  -7999.9401     -7999.9401      0             -4.629595     
 0.08           0.001          0              34620.576     -1.7246928e-10 -7999.9401     -7999.9401      0             -4.629595     
 0.081          0.001          0              34620.576     -2.2441011e-10 -7999.9401     -7999.9401      0             -4.629595     
 0.082          0.001          0              34620.576      7.3069268e-10 -7999.9401     -7999.9401      0             -4.629595     
 0.083          0.001          0              34620.576     -1.2871897e-09 -7999.9401     -7999.9401      0             -4.629595     
 0.084          0.001          0              34620.576     -1.2608562e-09 -7999.9401     -7999.9401      0             -4.629595     
 0.085          0.001          0              34620.576      8.4234284e-10 -7999.9401     -7999.9401      0             -4.629595     
 0.086          0.001          0              34620.576     -2.457427e-10  -7999.9401     -7999.9401      0             -4.629595     
 0.087          0.001          0              34620.576      1.6707791e-09 -7999.9401     -7999.9401      0             -4.629595     
 0.088          0.001          0              34620.576     -3.7761566e-10 -7999.9401     -7999.9401      0             -4.629595     
 0.089          0.001          0              34620.576      1.045941e-09  -7999.9401     -7999.9401      0             -4.629595     
 0.09           0.001          0              34620.576     -6.5974845e-10 -7999.9401     -7999.9401      0             -4.629595     
 0.091          0.001          0              34620.576      2.1028429e-10 -7999.9401     -7999.9401      0             -4.629595     
 0.092          0.001          0              34620.576      1.3220179e-10 -7999.9401     -7999.9401      0             -4.629595     
 0.093          0.001          0              34620.576     -1.4206657e-10 -7999.9401     -7999.9401      0             -4.629595     
 0.094          0.001          0              34620.576      2.4209684e-09 -7999.9401     -7999.9401      0             -4.629595     
 0.095          0.001          0              34620.576      2.696922e-09  -7999.9401     -7999.9401      0             -4.629595     
 0.096          0.001          0              34620.576      7.3503592e-10 -7999.9401     -7999.9401      0             -4.629595     
 0.097          0.001          0              34620.576      5.3968582e-10 -7999.9401     -7999.9401      0             -4.629595     
 0.098          0.001          0              34620.576     -9.2071306e-10 -7999.9401     -7999.9401      0             -4.629595     
 0.099          0.001          0              34620.576      2.4531797e-10 -7999.9401     -7999.9401      0             -4.629595     
 0.1            0.001          0              34620.576     -1.7200345e-10 -7999.9401     -7999.9401      0             -4.629595     
 0.101          0.001          0              34620.576      1.9836434e-10 -7999.9401     -7999.9401      0             -4.629595     
 0.102          0.001          0              34620.576      3.2882609e-11 -7999.9401     -7999.9401      0             -4.629595     
 0.103          0.001          0              34620.576      4.9836334e-10 -7999.9401     -7999.9401      0             -4.629595     
 0.104          0.001          0              34620.576      3.1564565e-10 -7999.9401     -7999.9401      0             -4.629595     
 0.105          0.001          0              34620.576      1.110021e-09  -7999.9401     -7999.9401      0             -4.629595     
 0.106          0.001          0              34620.576      3.9164558e-10 -7999.9401     -7999.9401      0             -4.629595     
 0.107          0.001          0              34620.576      9.8043609e-10 -7999.9401     -7999.9401      0             -4.629595     
 0.108          0.001          0              34620.576      3.617087e-12  -7999.9401     -7999.9401      0             -4.629595     
 0.109          0.001          0              34620.576     -4.9024956e-09 -7999.9401     -7999.9401      0             -4.629595     
 0.11           0.001          0              34620.576     -8.7939469e-09 -7999.9401     -7999.9401      0             -4.629595     
 0.111          0.001          0              34620.576     -1.1039788e-09 -7999.9401     -7999.9401      0             -4.629595     
 0.112          0.001          0              34620.576      1.7227884e-09 -7999.9401     -7999.9401      0             -4.629595     
 0.113          0.001          0              34620.576      6.048893e-10  -7999.9401     -7999.9401      0             -4.629595     
 0.114          0.001          0              34620.576      1.6178381e-09 -7999.9401     -7999.9401      0             -4.629595     
 0.115          0.001          0              34620.576     -7.0586631e-10 -7999.9401     -7999.9401      0             -4.629595     
 0.116          0.001          0              34620.576     -1.8852696e-10 -7999.9401     -7999.9401      0             -4.629595     
 0.117          0.001          0              34620.576      9.6980405e-10 -7999.9401     -7999.9401      0             -4.629595     
 0.118          0.001          0              34620.576     -3.1937234e-10 -7999.9401     -7999.9401      0             -4.629595     
 0.119          0.001          0              34620.576     -9.3433194e-10 -7999.9401     -7999.9401      0             -4.629595     
 0.12           0.001          0              34620.576     -2.685002e-10  -7999.9401     -7999.9401      0             -4.629595     
 0.121          0.001          0              34620.576     -7.5821816e-10 -7999.9401     -7999.9401      0             -4.629595     
 0.122          0.001          0              34620.576      8.8252813e-10 -7999.9401     -7999.9401      0             -4.629595     
 0.123          0.001          0              34620.576      2.8239311e-10 -7999.9401     -7999.9401      0             -4.629595     
 0.124          0.001          0              34620.576      1.1087194e-09 -7999.9401     -7999.9401      0             -4.629595     
 0.125          0.001          0              34620.576     -1.2647611e-09 -7999.9401     -7999.9401      0             -4.629595     
 0.126          0.001          0              34620.576     -1.5071196e-11 -7999.9401     -7999.9401      0             -4.629595     
 0.127          0.001          0              34620.576      6.4330577e-09 -7999.9401     -7999.9401      0             -4.629595     
 0.128          0.001          0              34620.576     -5.545241e-09  -7999.9401     -7999.9401      0             -4.629595     
 0.129          0.001          0              34620.576     -1.360422e-09  -7999.9401     -7999.9401      0             -4.629595     
 0.13           0.001          0              34620.576      3.1923533e-12 -7999.9401     -7999.9401      0             -4.629595     
 0.131          0.001          0              34620.576      3.6100446e-09 -7999.9401     -7999.9401      0             -4.629595     
 0.132          0.001          0              34620.576      1.2173005e-09 -7999.9401     -7999.9401      0             -4.629595     
 0.133          0.001          0              34620.576      6.6621536e-10 -7999.9401     -7999.9401      0             -4.629595     
 0.134          0.001          0              34620.576     -8.0096555e-11 -7999.9401     -7999.9401      0             -4.629595     
 0.135          0.001          0              34620.576     -1.6217977e-09 -7999.9401     -7999.9401      0             -4.629595     
 0.136          0.001          0              34620.576     -5.1845736e-09 -7999.9401     -7999.9401      0             -4.629595     
 0.137          0.001          0              34620.576      6.2931833e-10 -7999.9401     -7999.9401      0             -4.629595     
 0.138          0.001          0              34620.576     -7.1288126e-10 -7999.9401     -7999.9401      0             -4.629595     
 0.139          0.001          0              34620.576      3.2923712e-10 -7999.9401     -7999.9401      0             -4.629595     
 0.14           0.001          0              34620.576      1.0575458e-09 -7999.9401     -7999.9401      0             -4.629595     
 0.141          0.001          0              34620.576     -4.8078485e-10 -7999.9401     -7999.9401      0             -4.629595     
 0.142          0.001          0              34620.576     -4.6053464e-10 -7999.9401     -7999.9401      0             -4.629595     
 0.143          0.001          0              34620.576     -1.739627e-10  -7999.9401     -7999.9401      0             -4.629595     
 0.144          0.001          0              34620.576      7.2766474e-11 -7999.9401     -7999.9401      0             -4.629595     
 0.145          0.001          0              34620.576      3.0388189e-09 -7999.9401     -7999.9401      0             -4.629595     
 0.146          0.001          0              34620.576      5.8721489e-10 -7999.9401     -7999.9401      0             -4.629595     
 0.147          0.001          0              34620.576      1.5749263e-09 -7999.9401     -7999.9401      0             -4.629595     
 0.148          0.001          0              34620.576     -1.9696683e-10 -7999.9401     -7999.9401      0             -4.629595     
 0.149          0.001          0              34620.576     -3.4428092e-10 -7999.9401     -7999.9401      0             -4.629595     
 0.15           0.001          0              34620.576      3.4814462e-10 -7999.9401     -7999.9401      0             -4.629595     
 0.151          0.001          0              34620.576     -2.1624426e-10 -7999.9401     -7999.9401      0             -4.629595     
 0.152          0.001          0              34620.576     -8.2627146e-10 -7999.9401     -7999.9401      0             -4.629595     
 0.153          0.001          0              34620.576      2.8015161e-09 -7999.9401     -7999.9401      0             -4.629595     
 0.154          0.001          0              34620.576      2.6925376e-10 -7999.9401     -7999.9401      0             -4.629595     
 0.155          0.001          0              34620.576      2.2750655e-10 -7999.9401     -7999.9401      0             -4.629595     
 0.156          0.001          0              34620.576      7.9685523e-10 -7999.9401     -7999.9401      0             -4.629595     
 0.157          0.001          0              34620.576      4.8766279e-10 -7999.9401     -7999.9401      0             -4.629595     
 0.158          0.001          0              34620.576     -3.9856462e-11 -7999.9401     -7999.9401      0             -4.629595     
 0.159          0.001          0              34620.576     -2.0819624e-09 -7999.9401     -7999.9401      0             -4.629595     
 0.16           0.001          0              34620.576     -5.1945617e-09 -7999.9401     -7999.9401      0             -4.629595     
 0.161          0.001          0              34620.576     -8.6810088e-11 -7999.9401     -7999.9401      0             -4.629595     
 0.162          0.001          0              34620.576      6.1145212e-10 -7999.9401     -7999.9401      0             -4.629595     
 0.163          0.001          0              34620.576      6.5847425e-10 -7999.9401     -7999.9401      0             -4.629595     
 0.164          0.001          0              34620.576     -1.133258e-09  -7999.9401     -7999.9401      0             -4.629595     
 0.165          0.001          0              34620.576      2.4016225e-09 -7999.9401     -7999.9401      0             -4.629595     
 0.166          0.001          0              34620.576     -9.4704654e-10 -7999.9401     -7999.9401      0             -4.629595     
 0.167          0.001          0              34620.576      7.788109e-10  -7999.9401     -7999.9401      0             -4.629595     
 0.168          0.001          0              34620.576      3.2327715e-10 -7999.9401     -7999.9401      0             -4.629595     
 0.169          0.001          0              34620.576     -1.6632572e-09 -7999.9401     -7999.9401      0             -4.629595     
 0.17           0.001          0              34620.576      9.0287424e-10 -7999.9401     -7999.9401      0             -4.629595     
 0.171          0.001          0              34620.576      6.881645e-10  -7999.9401     -7999.9401      0             -4.629595     
 0.172          0.001          0              34620.576     -2.7294347e-09 -7999.9401     -7999.9401      0             -4.629595     
 0.173          0.001          0              34620.576     -1.1242701e-09 -7999.9401     -7999.9401      0             -4.629595     
 0.174          0.001          0              34620.576      1.9694765e-09 -7999.9401     -7999.9401      0             -4.629595     
 0.175          0.001          0              34620.576     -2.0479015e-10 -7999.9401     -7999.9401      0             -4.629595     
 0.176          0.001          0              34620.576     -1.476114e-09  -7999.9401     -7999.9401      0             -4.629595     
 0.177          0.001          0              34620.576     -1.9106851e-09 -7999.9401     -7999.9401      0             -4.629595     
 0.178          0.001          0              34620.576      2.768702e-09  -7999.9401     -7999.9401      0             -4.629595     
 0.179          0.001          0              34620.576     -1.142287e-09  -7999.9401     -7999.9401      0             -4.629595     
 0.18           0.001          0              34620.576      1.5841334e-09 -7999.9401     -7999.9401      0             -4.629595     
 0.181          0.001          0              34620.576      1.7834705e-10 -7999.9401     -7999.9401      0             -4.629595     
 0.182          0.001          0              34620.576      3.5015868e-10 -7999.9401     -7999.9401      0             -4.629595     
 0.183          0.001          0              34620.576      3.1245329e-10 -7999.9401     -7999.9401      0             -4.629595     
 0.184          0.001          0              34620.576     -1.3912358e-09 -7999.9401     -7999.9401      0             -4.629595     
 0.185          0.001          0              34620.576      8.5960621e-10 -7999.9401     -7999.9401      0             -4.629595     
 0.186          0.001          0              34620.576     -1.9890416e-09 -7999.9401     -7999.9401      0             -4.629595     
 0.187          0.001          0              34620.576      2.712829e-09  -7999.9401     -7999.9401      0             -4.629595     
 0.188          0.001          0              34620.576     -3.5231935e-09 -7999.9401     -7999.9401      0             -4.629595     
 0.189          0.001          0              34620.576      6.9389156e-10 -7999.9401     -7999.9401      0             -4.629595     
 0.19           0.001          0              34620.576      1.4212823e-09 -7999.9401     -7999.9401      0             -4.629595     
 0.191          0.001          0              34620.576     -6.8675329e-10 -7999.9401     -7999.9401      0             -4.629595     
 0.192          0.001          0              34620.576     -2.618127e-09  -7999.9401     -7999.9401      0             -4.629595     
 0.193          0.001          0              34620.576      2.7311336e-09 -7999.9401     -7999.9401      0             -4.629595     
 0.194          0.001          0              34620.576      1.2660161e-08 -7999.9401     -7999.9401      0             -4.629595     
 0.195          0.001          0              34620.576     -7.4227421e-09 -7999.9401     -7999.9401      0             -4.629595     
 0.196          0.001          0              34620.576     -1.7503139e-10 -7999.9401     -7999.9401      0             -4.629595     
 0.197          0.001          0              34620.576     -1.1373272e-09 -7999.9401     -7999.9401      0             -4.629595     
 0.198          0.001          0              34620.576      1.1098018e-09 -7999.9401     -7999.9401      0             -4.629595     
 0.199          0.001          0              34620.576     -6.0651973e-10 -7999.9401     -7999.9401      0             -4.629595     
 0.2            0.001          0              34620.576     -1.3768496e-09 -7999.9401     -7999.9401      0             -4.629595     
 0.201          0.001          0              34620.576      1.6867408e-09 -7999.9401     -7999.9401      0             -4.629595     
 0.202          0.001          0              34620.576      8.5056349e-11 -7999.9401     -7999.9401      0             -4.629595     
 0.203          0.001          0              34620.576     -4.0678528e-11 -7999.9401     -7999.9401      0             -4.629595     
 0.204          0.001          0              34620.576      4.6321594e-09 -7999.9401     -7999.9401      0             -4.629595     
 0.205          0.001          0              34620.576      1.0051159e-08 -7999.9401     -7999.9401      0             -4.629595     
 0.206          0.001          0              34620.576     -4.6639323e-09 -7999.9401     -7999.9401      0             -4.629595     
 0.207          0.001          0              34620.576     -1.3865363e-09 -7999.9401     -7999.9401      0             -4.629595     
 0.208          0.001          0              34620.576     -4.5060135e-10 -7999.9401     -7999.9401      0             -4.629595     
 0.209          0.001          0              34620.576     -3.6727134e-10 -7999.9401     -7999.9401      0             -4.629595     
 0.21           0.001          0              34620.576      1.0290476e-09 -7999.9401     -7999.9401      0             -4.629595     
 0.211          0.001          0              34620.576     -9.8106634e-10 -7999.9401     -7999.9401      0             -4.629595     
 0.212          0.001          0              34620.576      1.6217566e-09 -7999.9401     -7999.9401      0             -4.629595     
 0.213          0.001          0              34620.576     -4.8364838e-10 -7999.9401     -7999.9401      0             -4.629595     
 0.214          0.001          0              34620.576     -6.1764501e-10 -7999.9401     -7999.9401      0             -4.629595     
 0.215          0.001          0              34620.576     -1.3614222e-09 -7999.9401     -7999.9401      0             -4.629595     
 0.216          0.001          0              34620.576      2.6751373e-10 -7999.9401     -7999.9401      0             -4.629595     
 0.217          0.001          0              34620.576      1.3530098e-09 -7999.9401     -7999.9401      0             -4.629595     
Loop time of 2.08486 on 1 procs for 217 steps with 1728 atoms

99.4% CPU use with 1 MPI tasks x 1 OpenMP threads

Minimization stats:
  Stopping criterion = energy tolerance
  Energy initial, next-to-last, final = 
     -7939.08218864088  -7999.94014752173  -7999.94014752173
  Force two-norm initial, final = 5085.1236 8.6331841e-11
  Force max component initial, final = 5085.1236 8.5577936e-11
  Final line search alpha, max atom move = 1 8.5577936e-11
  Iterations, force evaluations = 217 410

MPI task timing breakdown:
Section |  min time  |  avg time  |  max time  |%varavg| %total
---------------------------------------------------------------
Pair    | 1.8847     | 1.8847     | 1.8847     |   0.0 | 90.40
Neigh   | 0.0019485  | 0.0019485  | 0.0019485  |   0.0 |  0.09
Comm    | 0.0051538  | 0.0051538  | 0.0051538  |   0.0 |  0.25
Output  | 0.15064    | 0.15064    | 0.15064    |   0.0 |  7.23
Modify  | 0          | 0          | 0          |   0.0 |  0.00
Other   |            | 0.04237    |            |       |  2.03

Nlocal:           1728 ave        1728 max        1728 min
Histogram: 1 0 0 0 0 0 0 0 0 0
Nghost:           2007 ave        2007 max        2007 min
Histogram: 1 0 0 0 0 0 0 0 0 0
Neighs:              0 ave           0 max           0 min
Histogram: 1 0 0 0 0 0 0 0 0 0
FullNghs:        48384 ave       48384 max       48384 min
Histogram: 1 0 0 0 0 0 0 0 0 0

Total # of neighbors = 48384
Ave neighs/atom = 28
Neighbor list builds = 1
Dangerous builds = 0
write_data Si_tersoff.dat
System init for write_data ...
Total wall time: 0:00:02
